% Model:              lens_cube.mph
% Version:            COMSOL 5.0.0.243
% Date:               Apr 2 2019, 09:52
% Dimension:          0
% Nodes:              4
% Expressions:        4
% Description:        Electric field, x component
% Length unit:        m
% x
-0.0049950049950050045    -0.004985014985014994    -0.004975024975024984    -0.004965034965034974    -0.004955044955044964    -0.004945054945054955    -0.004935064935064945    -0.004925074925074935    -0.004915084915084925    -0.004905094905094914    -0.004895104895104904    -0.004885114885114894    -0.004875124875124885    -0.004865134865134874    -0.004855144855144865    -0.004845154845154855    -0.004835164835164845    -0.0048251748251748345   -0.004815184815184824    -0.004805194805194815    -0.004795204795204804    -0.004785214785214794    -0.004775224775224785    -0.004765234765234774    -0.004755244755244765    -0.004745254745254755    -0.004735264735264744    -0.004725274725274734    -0.004715284715284724    -0.004705294705294714    -0.0046953046953047035   -0.004685314685314694    -0.004675324675324685    -0.004665334665334675    -0.0046553446553446644   -0.004645354645354654    -0.004635364635364644    -0.004625374625374634    -0.0046153846153846245   -0.004605394605394613    -0.004595404595404605    -0.004585414585414595    -0.0045754245754245845   -0.004565434565434574    -0.004555444555444564    -0.004545454545454554    -0.004535464535464544    -0.0045254745254745335   -0.004515484515484524    -0.004505494505494513    -0.004495504495504505    -0.004485514485514494    -0.004475524475524484    -0.004465534465534474    -0.004455544455544464    -0.0044455544455544544   -0.004435564435564443    -0.004425574425574434    -0.004415584415584425    -0.0044055944055944145   -0.004395604395604404    -0.004385614385614394    -0.004375624375624384    -0.004365634365634374    -0.0043556443556443634   -0.004345654345654354    -0.004335664335664343    -0.004325674325674334    -0.004315684315684324    -0.004305694305694314    -0.004295704295704304    -0.004285714285714294    -0.0042757242757242835   -0.004265734265734273    -0.004255744255744264    -0.004245754245754253    -0.0042357642357642444   -0.004225774225774234    -0.004215784215784224    -0.004205794205794214    -0.004195804195804204    -0.004185814185814193    -0.004175824175824183    -0.004165834165834173    -0.004155844155844164    -0.004145854145854154    -0.004135864135864144    -0.004125874125874134    -0.004115884115884124    -0.0041058941058941135   -0.004095904095904103    -0.004085914085914094    -0.004075924075924083    -0.0040659340659340735   -0.004055944055944064    -0.004045954045954054    -0.004035964035964044    -0.0040259740259740336   -0.004015984015984023    -0.004005994005994013    -0.003996003996004004    -0.003986013986013994    -0.003976023976023983    -0.003966033966033974    -0.003956043956043964    -0.003946053946053954    -0.003936063936063943    -0.003926073926073933    -0.003916083916083924    -0.003906093906093913    -0.0038961038961039035   -0.0038861138861138937   -0.0038761238761238835   -0.0038661338661338733   -0.0038561438561438635   -0.0038461538461538533   -0.003836163836163843    -0.0038261738261738338   -0.0038161838161838227   -0.0038061938061938133   -0.0037962037962038036   -0.0037862137862137934   -0.003776223776223783    -0.0037662337662337734   -0.003756243756243763    -0.003746253746253753    -0.0037362637362637428   -0.0037262737262737334   -0.0037162837162837224   -0.0037062937062937134   -0.0036963036963037032   -0.003686313686313693    -0.0036763236763236833   -0.003666333666333673    -0.0036563436563436637   -0.0036463536463536526   -0.0036363636363636433   -0.003626373626373633    -0.0036163836163836233   -0.003606393606393613    -0.003596403596403603    -0.003586413586413593    -0.003576423576423583    -0.0035664335664335727   -0.0035564435564435625   -0.0035464535464535523   -0.003536463536463543    -0.0035264735264735323   -0.003516483516483523    -0.0035064935064935128   -0.003496503496503503    -0.003486513486513493    -0.0034765234765234826   -0.0034665334665334733   -0.003456543456543463    -0.003446553446553453    -0.0034365634365634426   -0.003426573426573433    -0.0034165834165834227   -0.003406593406593413    -0.0033966033966034035   -0.0033866133866133925   -0.003376623376623383    -0.003366633366633373    -0.0033566433566433623   -0.0033466533466533525   -0.0033366633366633427   -0.0033266733266733325   -0.0033166833166833228   -0.0033066933066933125   -0.0032967032967033023   -0.003286713286713292    -0.003276723276723283    -0.003266733266733273    -0.0032567432567432624   -0.0032467532467532526   -0.0032367632367632424   -0.0032267732267732335   -0.0032167832167832224   -0.003206793206793213    -0.003196803196803203    -0.0031868131868131927   -0.0031768231768231825   -0.0031668331668331723   -0.0031568431568431625   -0.0031468531468531523   -0.0031368631368631425   -0.0031268731268731323   -0.003116883116883122    -0.0031068931068931127   -0.0030969030969031017   -0.0030869130869130923   -0.003076923076923082    -0.0030669330669330724   -0.003056943056943062    -0.0030469530469530524   -0.003036963036963043    -0.003026973026973032    -0.0030169830169830226   -0.0030069930069930124   -0.002997002997003002    -0.002987012987012992    -0.0029770229770229822   -0.002967032967032972    -0.0029570429570429622   -0.002947052947052952    -0.0029370629370629427   -0.0029270729270729316   -0.0029170829170829223   -0.002907092907092912    -0.002897102897102902    -0.002887112887112892    -0.002877122877122882    -0.002867132867132872    -0.002857142857142862    -0.0028471528471528526   -0.0028371628371628415   -0.002827172827172832    -0.002817182817182822    -0.0028071928071928117   -0.002797202797202802    -0.0027872127872127918   -0.002777222777222782    -0.0027672327672327727   -0.0027572427572427616   -0.0027472527472527522   -0.002737262737262742    -0.002727272727272732    -0.002717282717282722    -0.0027072927072927123   -0.0026973026973027016   -0.002687312687312692    -0.0026773226773226817   -0.0026673326673326715   -0.0026573426573426617   -0.002647352647352652    -0.0026373626373626417   -0.002627372627372632    -0.002617382617382622    -0.0026073926073926115   -0.0025974025974026017   -0.0025874125874125915   -0.0025774225774225813   -0.0025674325674325716   -0.0025574425574425618   -0.0025474525474525516   -0.0025374625374625422   -0.0025274725274725316   -0.002517482517482522    -0.0025074925074925116   -0.0024975024975025014   -0.0024875124875124916   -0.002477522477522482    -0.0024675324675324717   -0.0024575424575424614   -0.002447552447552452    -0.0024375624375624415   -0.0024275724275724317   -0.0024175824175824215   -0.0024075924075924113   -0.002397602397602401    -0.0023876123876123917   -0.002377622377622381    -0.0023676323676323713   -0.0023576423576423615   -0.002347652347652351    -0.0023376623376623424   -0.0023276723276723314   -0.002317682317682321    -0.002307692307692312    -0.0022977022977023016   -0.0022877122877122914   -0.002277722277722282    -0.002267732267732271    -0.0022577422577422616   -0.0022477522477522514   -0.0022377622377622412   -0.002227772227772231    -0.0022177822177822217   -0.002207792207792211    -0.0021978021978022013   -0.002187812187812191    -0.0021778221778221813   -0.0021678321678321706   -0.0021578421578421613   -0.002147852147852151    -0.002137862137862141    -0.0021278721278721316   -0.002117882117882121    -0.002107892107892112    -0.002097902097902101    -0.0020879120879120907   -0.0020779220779220814   -0.002067932067932071    -0.002057942057942061    -0.0020479520479520516   -0.0020379620379620406   -0.0020279720279720312   -0.0020179820179820214   -0.002007992007992011    -0.0019980019980020015   -0.0019880119880119913   -0.001978021978021981    -0.001968031968031971    -0.001958041958041961    -0.0019480519480519509   -0.001938061938061941    -0.001928071928071931    -0.001918081918081921    -0.0019080919080919107   -0.0018981018981019011   -0.0018881118881118905   -0.0018781218781218814   -0.0018681318681318707   -0.0018581418581418605   -0.0018481518481518514   -0.0018381618381618408   -0.0018281718281718312   -0.001818181818181821    -0.0018081918081918108   -0.001798201798201801    -0.001788211788211791    -0.0017782217782217804   -0.001768231768231771    -0.0017582417582417608   -0.0017482517482517509   -0.0017382617382617406   -0.0017282717282717309   -0.0017182817182817204   -0.0017082917082917107   -0.0016983016983017011   -0.0016883116883116905   -0.0016783216783216803   -0.0016683316683316707   -0.00165834165834166     -0.001648351648351651    -0.0016383616383616407   -0.00162837162837163     -0.0016183816183816212   -0.0016083916083916103   -0.001598401598401601    -0.0015884115884115908   -0.0015784215784215806   -0.0015684315684315706   -0.0015584415584415608   -0.0015484515484515502   -0.0015384615384615406   -0.0015284715284715309   -0.0015184815184815204   -0.0015084915084915107   -0.0014985014985015005   -0.0014885114885114905   -0.0014785214785214803   -0.0014685314685314707   -0.00145854145854146     -0.0014485514485514503   -0.0014385614385614403   -0.00142857142857143     -0.0014185814185814212   -0.0014085914085914105   -0.0013986013986013997   -0.0013886113886113908   -0.0013786213786213806   -0.00136863136863137     -0.0013586413586413608   -0.0013486513486513502   -0.0013386613386613406   -0.0013286713286713304   -0.0013186813186813202   -0.0013086913086913102   -0.0012987012987013004   -0.00128871128871129     -0.0012787212787212802   -0.00126873126873127     -0.00125874125874126     -0.0012487512487512498   -0.0012387612387612405   -0.0012287712287712299   -0.0012187812187812199   -0.0012087912087912105   -0.0011988011988011999   -0.0011888111888111908   -0.0011788211788211801   -0.00116883116883117     -0.0011588411588411604   -0.0011488511488511502   -0.0011388611388611395   -0.0011288711288711304   -0.0011188811188811197   -0.0011088911088911102   -0.0010989010989011004   -0.00108891108891109     -0.0010789210789210802   -0.00106893106893107     -0.0010589410589410598   -0.00104895104895105     -0.0010389610389610403   -0.0010289710289710296   -0.0010189810189810198   -0.00100899100899101     -9.990009990009999E-4    -9.890109890109897E-4    -9.790209790209799E-4    -9.690309690309692E-4    -9.590409590409603E-4    -9.490509490509497E-4    -9.390609390609395E-4    -9.290709290709306E-4    -9.1908091908092E-4      -9.090909090909093E-4    -8.991008991009E-4       -8.891108891108898E-4    -8.7912087912088E-4      -8.691308691308702E-4    -8.591408591408596E-4    -8.491508491508498E-4    -8.391608391608396E-4    -8.291708291708298E-4    -8.191808191808196E-4    -8.091908091908098E-4    -7.992007992007992E-4    -7.892107892107894E-4    -7.792207792207801E-4    -7.692307692307694E-4    -7.592407592407592E-4    -7.492507492507499E-4    -7.392607392607393E-4    -7.29270729270729E-4     -7.192807192807197E-4    -7.092907092907091E-4    -6.993006993007002E-4    -6.893106893106895E-4    -6.793206793206793E-4    -6.693306693306695E-4    -6.593406593406593E-4    -6.493506493506496E-4    -6.393606393606398E-4    -6.293706293706292E-4    -6.193806193806194E-4    -6.093906093906096E-4    -5.994005994005994E-4    -5.894105894105896E-4    -5.794205794205794E-4    -5.694305694305696E-4    -5.59440559440559E-4     -5.494505494505497E-4    -5.39460539460539E-4     -5.294705294705293E-4    -5.194805194805195E-4    -5.094905094905093E-4    -4.995004995004991E-4    -4.895104895104893E-4    -4.7952047952047865E-4   -4.6953046953046975E-4   -4.5954045954045954E-4   -4.495504495504489E-4    -4.3956043956043956E-4   -4.295704295704289E-4    -4.195804195804196E-4    -4.095904095904094E-4    -3.9960039960039917E-4   -3.896103896103894E-4    -3.796203796203792E-4    -3.69630369630369E-4     -3.596403596403592E-4    -3.49650349650349E-4     -3.396603396603392E-4    -3.29670329670329E-4     -3.1968031968031925E-4   -3.096903096903086E-4    -2.9970029970029883E-4   -2.897102897102895E-4    -2.7972027972027885E-4   -2.697302697302691E-4    -2.5974025974025887E-4   -2.4975024975024867E-4   -2.3976023976023933E-4   -2.2977022977022912E-4   -2.1978021978021848E-4   -2.0979020979020914E-4   -1.998001998001985E-4    -1.8981018981018916E-4   -1.7982017982017939E-4   -1.6983016983016875E-4   -1.598401598401594E-4    -1.498501498501492E-4    -1.3986013986013856E-4   -1.2987012987012879E-4   -1.1988011988011901E-4   -1.098901098901088E-4    -9.990009990009903E-5    -8.991008991008883E-5    -7.992007992007862E-5    -6.993006993006841E-5    -5.994005994005907E-5    -4.995004995004843E-5    -3.996003996003866E-5    -2.9970029970028452E-5   -1.9980019980018245E-5   -9.99000999000934E-6     1.3010426069826053E-18   9.99000999001064E-6      1.9980019980021715E-5    2.9970029970031054E-5    3.996003996004126E-5     4.99500499500519E-5      5.9940059940061675E-5    6.993006993007101E-5     7.992007992008122E-5     8.991008991009143E-5     9.990009990010163E-5     1.0989010989011097E-4    1.1988011988012205E-4    1.298701298701314E-4     1.3986013986014116E-4    1.498501498501518E-4     1.59840159840162E-4      1.6983016983017135E-4    1.798201798201807E-4     1.8981018981019176E-4    1.998001998002011E-4     2.097902097902113E-4     2.1978021978022195E-4    2.2977022977023172E-4    2.3976023976024106E-4    2.4975024975025214E-4    2.597402597402615E-4     2.697302697302717E-4     2.797202797202819E-4     2.897102897102921E-4     2.9970029970030143E-4    3.096903096903112E-4     3.1968031968032185E-4    3.296703296703316E-4     3.396603396603414E-4     3.4965034965035204E-4    3.596403596403618E-4     3.6963036963037115E-4    3.796203796203822E-4     3.89610389610392E-4      3.9960039960040177E-4    4.095904095904111E-4     4.195804195804222E-4     4.295704295704315E-4     4.395604395604413E-4     4.4955044955045194E-4    4.5954045954046214E-4    4.695304695304715E-4     4.7952047952048256E-4    4.895104895104919E-4     4.995004995005017E-4     5.094905094905123E-4     5.194805194805221E-4     5.294705294705319E-4     5.394605394605412E-4     5.494505494505523E-4     5.594405594405616E-4     5.694305694305718E-4     5.794205794205825E-4     5.894105894105922E-4     5.994005994006016E-4     6.093906093906126E-4     6.19380619380622E-4      6.293706293706318E-4     6.393606393606424E-4     6.493506493506522E-4     6.593406593406619E-4     6.693306693306717E-4     6.793206793206824E-4     6.893106893106921E-4     6.993006993007019E-4     7.092907092907125E-4     7.192807192807223E-4     7.292707292707317E-4     7.392607392607427E-4     7.492507492507525E-4     7.592407592407618E-4     7.692307692307716E-4     7.792207792207827E-4     7.89210789210792E-4      7.992007992008018E-4     8.091908091908124E-4     8.191808191808222E-4     8.29170829170832E-4      8.391608391608426E-4     8.491508491508524E-4     8.591408591408622E-4     8.691308691308728E-4     8.791208791208826E-4     8.891108891108924E-4     8.991008991009017E-4     9.090909090909128E-4     9.190809190809225E-4     9.290709290709319E-4     9.39060939060943E-4      9.490509490509523E-4     9.590409590409621E-4     9.690309690309727E-4     9.790209790209825E-4     9.890109890109923E-4     9.99000999001002E-4      0.0010089910089910127    0.0010189810189810224    0.0010289710289710322    0.0010389610389610429    0.0010489510489510526    0.001058941058941062     0.001068931068931073     0.0010789210789210828    0.0010889110889110926    0.001098901098901103     0.001108891108891113     0.0011188811188811226    0.001128871128871132     0.001138861138861143     0.0011488511488511525    0.0011588411588411623    0.0011688311688311734    0.0011788211788211827    0.0011888111888111923    0.0011988011988012031    0.0012087912087912127    0.0012187812187812227    0.0012287712287712322    0.001238761238761243     0.0012487512487512527    0.0012587412587412626    0.001268731268731273     0.001278721278721283     0.0012887112887112924    0.0012987012987013035    0.001308691308691313     0.0013186813186813224    0.0013286713286713334    0.0013386613386613432    0.0013486513486513528    0.0013586413586413623    0.0013686313686313732    0.0013786213786213827    0.0013886113886113927    0.0013986013986014032    0.0014085914085914131    0.0014185814185814227    0.0014285714285714336    0.0014385614385614431    0.0014485514485514529    0.0014585414585414624    0.0014685314685314735    0.0014785214785214829    0.0014885114885114924    0.0014985014985015033    0.0015084915084915128    0.0015184815184815228    0.0015284715284715337    0.0015384615384615432    0.0015484515484515528    0.0015584415584415636    0.0015684315684315732    0.0015784215784215832    0.0015884115884115925    0.0015984015984016036    0.0016083916083916132    0.001618381618381623     0.0016283716283716336    0.0016383616383616433    0.001648351648351653     0.0016583416583416638    0.0016683316683316733    0.0016783216783216829    0.0016883116883116929    0.0016983016983017037    0.0017082917082917133    0.0017182817182817228    0.0017282717282717337    0.0017382617382617432    0.001748251748251753     0.0017582417582417637    0.0017682317682317737    0.001778221778221783     0.001788211788211794     0.0017982017982018034    0.0018081918081918134    0.001818181818181823     0.0018281718281718338    0.0018381618381618434    0.001848151848151853     0.0018581418581418638    0.0018681318681318738    0.0018781218781218833    0.0018881118881118942    0.0018981018981019037    0.001908091908091913     0.0019180819180819242    0.0019280719280719337    0.0019380619380619435    0.001948051948051953     0.001958041958041964     0.0019680319680319735    0.0019780219780219837    0.001988011988011994     0.001998001998002004     0.0020079920079920134    0.0020179820179820245    0.002027972027972034     0.002037962037962044     0.0020479520479520534    0.0020579420579420644    0.002067932067932074     0.002077922077922083     0.002087912087912094     0.0020979020979021035    0.0021078921078921137    0.0021178821178821244    0.002127872127872134     0.0021378621378621435    0.0021478521478521546    0.002157842157842164     0.002167832167832174     0.0021778221778221835    0.0021878121878121945    0.002197802197802204     0.0022077922077922136    0.0022177822177822243    0.0022277722277722345    0.002237762237762244     0.002247752247752255     0.0022577422577422642    0.0022677322677322736    0.002277722277722284     0.0022877122877122944    0.002297702297702304     0.0023076923076923135    0.0023176823176823246    0.002327672327672334     0.002337662337662344     0.0023476523476523544    0.0023576423576423646    0.002367632367632374     0.002377622377622385     0.0023876123876123943    0.002397602397602404     0.002407592407592414     0.0024175824175824245    0.0024275724275724343    0.0024375624375624436    0.0024475524475524547    0.0024575424575424645    0.0024675324675324743    0.002477522477522485     0.0024875124875124947    0.002497502497502504     0.0025074925074925138    0.0025174825174825244    0.0025274725274725346    0.002537462537462544     0.002547452547452555     0.0025574425574425644    0.002567432567432574     0.002577422577422585     0.0025874125874125946    0.0025974025974026043    0.002607392607392615     0.0026173826173826248    0.002627372627372634     0.0026373626373626443    0.002647352647352655     0.0026573426573426647    0.002667332667332674     0.002677322677322685     0.0026873126873126945    0.0026973026973027042    0.002707292707292715     0.0027172827172827247    0.0027272727272727344    0.002737262737262744     0.002747252747252755     0.0027572427572427646    0.0027672327672327744    0.002777222777222785     0.002787212787212795     0.002797202797202804     0.002807192807192815     0.0028171828171828246    0.0028271728271728343    0.002837162837162845     0.002847152847152855     0.0028571428571428645    0.002867132867132874     0.002877122877122885     0.0028871128871128943    0.0028971028971029045    0.0029070929070929147    0.002917082917082925     0.0029270729270729347    0.0029370629370629453    0.002947052947052955     0.002957042957042965     0.002967032967032974     0.0029770229770229853    0.0029870129870129946    0.0029970029970030044    0.003006993006993015     0.003016983016983025     0.0030269730269730346    0.003036963036963045     0.003046953046953055     0.0030569430569430643    0.003066933066933076     0.0030769230769230847    0.003086913086913095     0.0030969030969031047    0.0031068931068931153    0.003116883116883125     0.003126873126873135     0.0031368631368631455    0.0031468531468531553    0.0031568431568431646    0.0031668331668331757    0.003176823176823185     0.003186813186813195     0.0031968031968032055    0.0032067932067932152    0.003216783216783225     0.0032267732267732344    0.0032367632367632454    0.0032467532467532548    0.0032567432567432645    0.003266733266733275     0.003276723276723285     0.003286713286713295     0.003296703296703306     0.0033066933066933156    0.0033166833166833254    0.0033266733266733347    0.0033366633366633458    0.003346653346653355     0.003356643356643365     0.0033666333666333755    0.0033766233766233853    0.003386613386613395     0.0033966033966034057    0.0034065934065934155    0.003416583416583425     0.003426573426573436     0.0034365634365634452    0.003446553446553455     0.003456543456543465     0.0034665334665334754    0.0034765234765234856    0.0034865134865134954    0.003496503496503506     0.003506493506493516     0.003516483516483525     0.0035264735264735362    0.0035364635364635456    0.0035464535464535553    0.003556443556443565     0.0035664335664335758    0.0035764235764235855    0.003586413586413595     0.003596403596403606     0.0036063936063936153    0.003616383616383625     0.0036263736263736366    0.0036363636363636455    0.0036463536463536552    0.003656343656343666     0.003666333666333676     0.003676323676323686     0.003686313686313695     0.0036963036963037063    0.0037062937062937156    0.0037162837162837254    0.003726273726273736     0.003736263736263746     0.0037462537462537556    0.003756243756243766     0.003766233766233776     0.0037762237762237853    0.003786213786213795     0.0037962037962038066    0.0038061938061938155    0.0038161838161838253    0.003826173826173836     0.0038361638361638457    0.003846153846153856     0.003856143856143866     0.0038661338661338763    0.0038761238761238852    0.0038861138861138967    0.003896103896103906     0.003906093906093916     0.003916083916083926     0.003926073926073936     0.003936063936063946     0.003946053946053955     0.0039560439560439664    0.003966033966033977     0.003976023976023986     0.003986013986013997     0.003996003996004006     0.004005994005994016     0.004015984015984026     0.004025974025974036     0.004035964035964046     0.004045954045954056     0.004055944055944067     0.004065934065934076     0.0040759240759240855    0.0040859140859140965    0.004095904095904106     0.004105894105894116     0.004115884115884126     0.0041258741258741365    0.004135864135864146     0.004145854145854155     0.004155844155844167     0.0041658341658341765    0.004175824175824186     0.004185814185814197     0.004195804195804206     0.004205794205794216     0.004215784215784227     0.004225774225774237     0.004235764235764246     0.0042457542457542555    0.004255744255744267     0.004265734265734276     0.004275724275724286     0.004285714285714296     0.0042957042957043065    0.004305694305694316     0.004315684315684327     0.004325674325674337     0.004335664335664346     0.004345654345654358     0.004355644355644366     0.004365634365634376     0.0043756243756243865    0.004385614385614397     0.004395604395604407     0.004405594405594416     0.004415584415584427     0.004425574425574437     0.004435564435564446     0.004445554445554457     0.004455544455544466     0.004465534465534477     0.004475524475524487     0.004485514485514497     0.004495504495504507     0.004505494505494516     0.004515484515484528     0.004525474525474536     0.004535464535464546     0.0045454545454545565    0.004555444555444567     0.004565434565434577     0.004575424575424587     0.004585414585414597     0.004595404595404607     0.004605394605394616     0.004615384615384627     0.004625374625374636     0.004635364635364647     0.004645354645354657     0.004655344655344667     0.004665334665334677     0.0046753246753246875    0.004685314685314698     0.004695304695304706     0.004705294705294718     0.0047152847152847266    0.004725274725274737     0.004735264735264747     0.004745254745254757     0.004755244755244767     0.004765234765234776     0.004775224775224788     0.004785214785214796     0.0047952047952048065    0.0048051948051948176    0.004815184815184827     0.004825174825174837     0.004835164835164847     0.0048451548451548575    0.004855144855144868     0.004865134865134876     0.004875124875124888     0.004885114885114897     0.004895104895104907     0.004905094905094917     0.004915084915084927     0.004925074925074937     0.004935064935064948     0.004945054945054958     0.004955044955044966     0.0049650349650349765    0.004975024975024987     0.004985014985014997     0.004995004995005007
% y