% Model:              lens_cube.mph
% Version:            COMSOL 5.0.0.243
% Date:               Dec 19 2019, 15:53
% Dimension:          0
% Nodes:              4
% Expressions:        4
% Description:        Electric field, y component
% Length unit:        m
% x
1.3010426069826053E-18    1.3010426069826053E-18   1.3010426069826053E-18   1.3010426069826053E-18   1.3010426069826053E-18   1.3010426069826053E-18   1.3010426069826053E-18   1.3010426069826053E-18   1.3010426069826053E-18   1.3010426069826053E-18   1.3010426069826053E-18   1.3010426069826053E-18   1.3010426069826053E-18   1.3010426069826053E-18   1.3010426069826053E-18   1.3010426069826053E-18   1.3010426069826053E-18   1.3010426069826053E-18   1.3010426069826053E-18   1.3010426069826053E-18   1.3010426069826053E-18   1.3010426069826053E-18   1.3010426069826053E-18   1.3010426069826053E-18   1.3010426069826053E-18   1.3010426069826053E-18   1.3010426069826053E-18   1.3010426069826053E-18   1.3010426069826053E-18   1.3010426069826053E-18   1.3010426069826053E-18   1.3010426069826053E-18   1.3010426069826053E-18   1.3010426069826053E-18   1.3010426069826053E-18   1.3010426069826053E-18   1.3010426069826053E-18   1.3010426069826053E-18   1.3010426069826053E-18   1.3010426069826053E-18   1.3010426069826053E-18   1.3010426069826053E-18   1.3010426069826053E-18   1.3010426069826053E-18   1.3010426069826053E-18   1.3010426069826053E-18   1.3010426069826053E-18   1.3010426069826053E-18   1.3010426069826053E-18   1.3010426069826053E-18   1.3010426069826053E-18   1.3010426069826053E-18   1.3010426069826053E-18   1.3010426069826053E-18   1.3010426069826053E-18   1.3010426069826053E-18   1.3010426069826053E-18   1.3010426069826053E-18   1.3010426069826053E-18   1.3010426069826053E-18   1.3010426069826053E-18   1.3010426069826053E-18   1.3010426069826053E-18   1.3010426069826053E-18   1.3010426069826053E-18   1.3010426069826053E-18   1.3010426069826053E-18   1.3010426069826053E-18   1.3010426069826053E-18   1.3010426069826053E-18   1.3010426069826053E-18   1.3010426069826053E-18   1.3010426069826053E-18   1.3010426069826053E-18   1.3010426069826053E-18   1.3010426069826053E-18   1.3010426069826053E-18   1.3010426069826053E-18   1.3010426069826053E-18   1.3010426069826053E-18   1.3010426069826053E-18   1.3010426069826053E-18   1.3010426069826053E-18   1.3010426069826053E-18   1.3010426069826053E-18   1.3010426069826053E-18   1.3010426069826053E-18   1.3010426069826053E-18   1.3010426069826053E-18   1.3010426069826053E-18   1.3010426069826053E-18   1.3010426069826053E-18   1.3010426069826053E-18   1.3010426069826053E-18   1.3010426069826053E-18   1.3010426069826053E-18   1.3010426069826053E-18   1.3010426069826053E-18   1.3010426069826053E-18   1.3010426069826053E-18   1.3010426069826053E-18   1.3010426069826053E-18   1.3010426069826053E-18   1.3010426069826053E-18   1.3010426069826053E-18   1.3010426069826053E-18   1.3010426069826053E-18   1.3010426069826053E-18   1.3010426069826053E-18   1.3010426069826053E-18   1.3010426069826053E-18   1.3010426069826053E-18   1.3010426069826053E-18   1.3010426069826053E-18   1.3010426069826053E-18   1.3010426069826053E-18   1.3010426069826053E-18   1.3010426069826053E-18   1.3010426069826053E-18   1.3010426069826053E-18   1.3010426069826053E-18   1.3010426069826053E-18   1.3010426069826053E-18   1.3010426069826053E-18   1.3010426069826053E-18   1.3010426069826053E-18   1.3010426069826053E-18   1.3010426069826053E-18   1.3010426069826053E-18   1.3010426069826053E-18   1.3010426069826053E-18   1.3010426069826053E-18   1.3010426069826053E-18   1.3010426069826053E-18   1.3010426069826053E-18   1.3010426069826053E-18   1.3010426069826053E-18   1.3010426069826053E-18   1.3010426069826053E-18   1.3010426069826053E-18   1.3010426069826053E-18   1.3010426069826053E-18   1.3010426069826053E-18   1.3010426069826053E-18   1.3010426069826053E-18   1.3010426069826053E-18   1.3010426069826053E-18   1.3010426069826053E-18   1.3010426069826053E-18   1.3010426069826053E-18   1.3010426069826053E-18   1.3010426069826053E-18   1.3010426069826053E-18   1.3010426069826053E-18   1.3010426069826053E-18   1.3010426069826053E-18   1.3010426069826053E-18   1.3010426069826053E-18   1.3010426069826053E-18   1.3010426069826053E-18   1.3010426069826053E-18   1.3010426069826053E-18   1.3010426069826053E-18   1.3010426069826053E-18   1.3010426069826053E-18   1.3010426069826053E-18   1.3010426069826053E-18   1.3010426069826053E-18   1.3010426069826053E-18   1.3010426069826053E-18   1.3010426069826053E-18   1.3010426069826053E-18   1.3010426069826053E-18   1.3010426069826053E-18   1.3010426069826053E-18   1.3010426069826053E-18   1.3010426069826053E-18   1.3010426069826053E-18   1.3010426069826053E-18   1.3010426069826053E-18   1.3010426069826053E-18   1.3010426069826053E-18   1.3010426069826053E-18   1.3010426069826053E-18   1.3010426069826053E-18   1.3010426069826053E-18   1.3010426069826053E-18   1.3010426069826053E-18   1.3010426069826053E-18   1.3010426069826053E-18   1.3010426069826053E-18   1.3010426069826053E-18   1.3010426069826053E-18   1.3010426069826053E-18   1.3010426069826053E-18   1.3010426069826053E-18   1.3010426069826053E-18   1.3010426069826053E-18   1.3010426069826053E-18   1.3010426069826053E-18   1.3010426069826053E-18   1.3010426069826053E-18   1.3010426069826053E-18   1.3010426069826053E-18   1.3010426069826053E-18   1.3010426069826053E-18   1.3010426069826053E-18   1.3010426069826053E-18   1.3010426069826053E-18   1.3010426069826053E-18   1.3010426069826053E-18   1.3010426069826053E-18   1.3010426069826053E-18   1.3010426069826053E-18   1.3010426069826053E-18   1.3010426069826053E-18   1.3010426069826053E-18   1.3010426069826053E-18   1.3010426069826053E-18   1.3010426069826053E-18   1.3010426069826053E-18   1.3010426069826053E-18   1.3010426069826053E-18   1.3010426069826053E-18   1.3010426069826053E-18   1.3010426069826053E-18   1.3010426069826053E-18   1.3010426069826053E-18   1.3010426069826053E-18   1.3010426069826053E-18   1.3010426069826053E-18   1.3010426069826053E-18   1.3010426069826053E-18   1.3010426069826053E-18   1.3010426069826053E-18   1.3010426069826053E-18   1.3010426069826053E-18   1.3010426069826053E-18   1.3010426069826053E-18   1.3010426069826053E-18   1.3010426069826053E-18   1.3010426069826053E-18   1.3010426069826053E-18   1.3010426069826053E-18   1.3010426069826053E-18   1.3010426069826053E-18   1.3010426069826053E-18   1.3010426069826053E-18   1.3010426069826053E-18   1.3010426069826053E-18   1.3010426069826053E-18   1.3010426069826053E-18   1.3010426069826053E-18   1.3010426069826053E-18   1.3010426069826053E-18   1.3010426069826053E-18   1.3010426069826053E-18   1.3010426069826053E-18   1.3010426069826053E-18   1.3010426069826053E-18   1.3010426069826053E-18   1.3010426069826053E-18   1.3010426069826053E-18   1.3010426069826053E-18   1.3010426069826053E-18   1.3010426069826053E-18   1.3010426069826053E-18   1.3010426069826053E-18   1.3010426069826053E-18   1.3010426069826053E-18   1.3010426069826053E-18   1.3010426069826053E-18   1.3010426069826053E-18   1.3010426069826053E-18   1.3010426069826053E-18   1.3010426069826053E-18   1.3010426069826053E-18   1.3010426069826053E-18   1.3010426069826053E-18   1.3010426069826053E-18   1.3010426069826053E-18   1.3010426069826053E-18   1.3010426069826053E-18   1.3010426069826053E-18   1.3010426069826053E-18   1.3010426069826053E-18   1.3010426069826053E-18   1.3010426069826053E-18   1.3010426069826053E-18   1.3010426069826053E-18   1.3010426069826053E-18   1.3010426069826053E-18   1.3010426069826053E-18   1.3010426069826053E-18   1.3010426069826053E-18   1.3010426069826053E-18   1.3010426069826053E-18   1.3010426069826053E-18   1.3010426069826053E-18   1.3010426069826053E-18   1.3010426069826053E-18   1.3010426069826053E-18   1.3010426069826053E-18   1.3010426069826053E-18   1.3010426069826053E-18   1.3010426069826053E-18   1.3010426069826053E-18   1.3010426069826053E-18   1.3010426069826053E-18   1.3010426069826053E-18   1.3010426069826053E-18   1.3010426069826053E-18   1.3010426069826053E-18   1.3010426069826053E-18   1.3010426069826053E-18   1.3010426069826053E-18   1.3010426069826053E-18   1.3010426069826053E-18   1.3010426069826053E-18   1.3010426069826053E-18   1.3010426069826053E-18   1.3010426069826053E-18   1.3010426069826053E-18   1.3010426069826053E-18   1.3010426069826053E-18   1.3010426069826053E-18   1.3010426069826053E-18   1.3010426069826053E-18   1.3010426069826053E-18   1.3010426069826053E-18   1.3010426069826053E-18   1.3010426069826053E-18   1.3010426069826053E-18   1.3010426069826053E-18   1.3010426069826053E-18   1.3010426069826053E-18   1.3010426069826053E-18   1.3010426069826053E-18   1.3010426069826053E-18   1.3010426069826053E-18   1.3010426069826053E-18   1.3010426069826053E-18   1.3010426069826053E-18   1.3010426069826053E-18   1.3010426069826053E-18   1.3010426069826053E-18   1.3010426069826053E-18   1.3010426069826053E-18   1.3010426069826053E-18   1.3010426069826053E-18   1.3010426069826053E-18   1.3010426069826053E-18   1.3010426069826053E-18   1.3010426069826053E-18   1.3010426069826053E-18   1.3010426069826053E-18   1.3010426069826053E-18   1.3010426069826053E-18   1.3010426069826053E-18   1.3010426069826053E-18   1.3010426069826053E-18   1.3010426069826053E-18   1.3010426069826053E-18   1.3010426069826053E-18   1.3010426069826053E-18   1.3010426069826053E-18   1.3010426069826053E-18   1.3010426069826053E-18   1.3010426069826053E-18   1.3010426069826053E-18   1.3010426069826053E-18   1.3010426069826053E-18   1.3010426069826053E-18   1.3010426069826053E-18   1.3010426069826053E-18   1.3010426069826053E-18   1.3010426069826053E-18   1.3010426069826053E-18   1.3010426069826053E-18   1.3010426069826053E-18   1.3010426069826053E-18   1.3010426069826053E-18   1.3010426069826053E-18   1.3010426069826053E-18   1.3010426069826053E-18   1.3010426069826053E-18   1.3010426069826053E-18   1.3010426069826053E-18   1.3010426069826053E-18   1.3010426069826053E-18   1.3010426069826053E-18   1.3010426069826053E-18   1.3010426069826053E-18   1.3010426069826053E-18   1.3010426069826053E-18   1.3010426069826053E-18   1.3010426069826053E-18   1.3010426069826053E-18   1.3010426069826053E-18   1.3010426069826053E-18   1.3010426069826053E-18   1.3010426069826053E-18   1.3010426069826053E-18   1.3010426069826053E-18   1.3010426069826053E-18   1.3010426069826053E-18   1.3010426069826053E-18   1.3010426069826053E-18   1.3010426069826053E-18   1.3010426069826053E-18   1.3010426069826053E-18   1.3010426069826053E-18   1.3010426069826053E-18   1.3010426069826053E-18   1.3010426069826053E-18   1.3010426069826053E-18   1.3010426069826053E-18   1.3010426069826053E-18   1.3010426069826053E-18   1.3010426069826053E-18   1.3010426069826053E-18   1.3010426069826053E-18   1.3010426069826053E-18   1.3010426069826053E-18   1.3010426069826053E-18   1.3010426069826053E-18   1.3010426069826053E-18   1.3010426069826053E-18   1.3010426069826053E-18   1.3010426069826053E-18   1.3010426069826053E-18   1.3010426069826053E-18   1.3010426069826053E-18   1.3010426069826053E-18   1.3010426069826053E-18   1.3010426069826053E-18   1.3010426069826053E-18   1.3010426069826053E-18   1.3010426069826053E-18   1.3010426069826053E-18   1.3010426069826053E-18   1.3010426069826053E-18   1.3010426069826053E-18   1.3010426069826053E-18   1.3010426069826053E-18   1.3010426069826053E-18   1.3010426069826053E-18   1.3010426069826053E-18   1.3010426069826053E-18   1.3010426069826053E-18   1.3010426069826053E-18   1.3010426069826053E-18   1.3010426069826053E-18   1.3010426069826053E-18   1.3010426069826053E-18   1.3010426069826053E-18   1.3010426069826053E-18   1.3010426069826053E-18   1.3010426069826053E-18   1.3010426069826053E-18   1.3010426069826053E-18   1.3010426069826053E-18   1.3010426069826053E-18   1.3010426069826053E-18   1.3010426069826053E-18   1.3010426069826053E-18   1.3010426069826053E-18   1.3010426069826053E-18   1.3010426069826053E-18   1.3010426069826053E-18   1.3010426069826053E-18   1.3010426069826053E-18   1.3010426069826053E-18   1.3010426069826053E-18   1.3010426069826053E-18   1.3010426069826053E-18   1.3010426069826053E-18   1.3010426069826053E-18   1.3010426069826053E-18   1.3010426069826053E-18   1.3010426069826053E-18   1.3010426069826053E-18   1.3010426069826053E-18   1.3010426069826053E-18   1.3010426069826053E-18   1.3010426069826053E-18   1.3010426069826053E-18   1.3010426069826053E-18   1.3010426069826053E-18   1.3010426069826053E-18   1.3010426069826053E-18   1.3010426069826053E-18   1.3010426069826053E-18   1.3010426069826053E-18   1.3010426069826053E-18   1.3010426069826053E-18   1.3010426069826053E-18   1.3010426069826053E-18   1.3010426069826053E-18   1.3010426069826053E-18   1.3010426069826053E-18   1.3010426069826053E-18   1.3010426069826053E-18   1.3010426069826053E-18   1.3010426069826053E-18   1.3010426069826053E-18   1.3010426069826053E-18   1.3010426069826053E-18   1.3010426069826053E-18   1.3010426069826053E-18   1.3010426069826053E-18   1.3010426069826053E-18   1.3010426069826053E-18   1.3010426069826053E-18   1.3010426069826053E-18   1.3010426069826053E-18   1.3010426069826053E-18   1.3010426069826053E-18   1.3010426069826053E-18   1.3010426069826053E-18   1.3010426069826053E-18   1.3010426069826053E-18   1.3010426069826053E-18   1.3010426069826053E-18   1.3010426069826053E-18   1.3010426069826053E-18   1.3010426069826053E-18   1.3010426069826053E-18   1.3010426069826053E-18   1.3010426069826053E-18   1.3010426069826053E-18   1.3010426069826053E-18   1.3010426069826053E-18   1.3010426069826053E-18   1.3010426069826053E-18   1.3010426069826053E-18   1.3010426069826053E-18   1.3010426069826053E-18   1.3010426069826053E-18   1.3010426069826053E-18   1.3010426069826053E-18   1.3010426069826053E-18   1.3010426069826053E-18   1.3010426069826053E-18   1.3010426069826053E-18   1.3010426069826053E-18   1.3010426069826053E-18   1.3010426069826053E-18   1.3010426069826053E-18   1.3010426069826053E-18   1.3010426069826053E-18   1.3010426069826053E-18   1.3010426069826053E-18   1.3010426069826053E-18   1.3010426069826053E-18   1.3010426069826053E-18   1.3010426069826053E-18   1.3010426069826053E-18   1.3010426069826053E-18   1.3010426069826053E-18   1.3010426069826053E-18   1.3010426069826053E-18   1.3010426069826053E-18   1.3010426069826053E-18   1.3010426069826053E-18   1.3010426069826053E-18   1.3010426069826053E-18   1.3010426069826053E-18   1.3010426069826053E-18   1.3010426069826053E-18   1.3010426069826053E-18   1.3010426069826053E-18   1.3010426069826053E-18   1.3010426069826053E-18   1.3010426069826053E-18   1.3010426069826053E-18   1.3010426069826053E-18   1.3010426069826053E-18   1.3010426069826053E-18   1.3010426069826053E-18   1.3010426069826053E-18   1.3010426069826053E-18   1.3010426069826053E-18   1.3010426069826053E-18   1.3010426069826053E-18   1.3010426069826053E-18   1.3010426069826053E-18   1.3010426069826053E-18   1.3010426069826053E-18   1.3010426069826053E-18   1.3010426069826053E-18   1.3010426069826053E-18   1.3010426069826053E-18   1.3010426069826053E-18   1.3010426069826053E-18   1.3010426069826053E-18   1.3010426069826053E-18   1.3010426069826053E-18   1.3010426069826053E-18   1.3010426069826053E-18   1.3010426069826053E-18   1.3010426069826053E-18   1.3010426069826053E-18   1.3010426069826053E-18   1.3010426069826053E-18   1.3010426069826053E-18   1.3010426069826053E-18   1.3010426069826053E-18   1.3010426069826053E-18   1.3010426069826053E-18   1.3010426069826053E-18   1.3010426069826053E-18   1.3010426069826053E-18   1.3010426069826053E-18   1.3010426069826053E-18   1.3010426069826053E-18   1.3010426069826053E-18   1.3010426069826053E-18   1.3010426069826053E-18   1.3010426069826053E-18   1.3010426069826053E-18   1.3010426069826053E-18   1.3010426069826053E-18   1.3010426069826053E-18   1.3010426069826053E-18   1.3010426069826053E-18   1.3010426069826053E-18   1.3010426069826053E-18   1.3010426069826053E-18   1.3010426069826053E-18   1.3010426069826053E-18   1.3010426069826053E-18   1.3010426069826053E-18   1.3010426069826053E-18   1.3010426069826053E-18   1.3010426069826053E-18   1.3010426069826053E-18   1.3010426069826053E-18   1.3010426069826053E-18   1.3010426069826053E-18   1.3010426069826053E-18   1.3010426069826053E-18   1.3010426069826053E-18   1.3010426069826053E-18   1.3010426069826053E-18   1.3010426069826053E-18   1.3010426069826053E-18   1.3010426069826053E-18   1.3010426069826053E-18   1.3010426069826053E-18   1.3010426069826053E-18   1.3010426069826053E-18   1.3010426069826053E-18   1.3010426069826053E-18   1.3010426069826053E-18   1.3010426069826053E-18   1.3010426069826053E-18   1.3010426069826053E-18   1.3010426069826053E-18   1.3010426069826053E-18   1.3010426069826053E-18   1.3010426069826053E-18   1.3010426069826053E-18   1.3010426069826053E-18   1.3010426069826053E-18   1.3010426069826053E-18   1.3010426069826053E-18   1.3010426069826053E-18   1.3010426069826053E-18   1.3010426069826053E-18   1.3010426069826053E-18   1.3010426069826053E-18   1.3010426069826053E-18   1.3010426069826053E-18   1.3010426069826053E-18   1.3010426069826053E-18   1.3010426069826053E-18   1.3010426069826053E-18   1.3010426069826053E-18   1.3010426069826053E-18   1.3010426069826053E-18   1.3010426069826053E-18   1.3010426069826053E-18   1.3010426069826053E-18   1.3010426069826053E-18   1.3010426069826053E-18   1.3010426069826053E-18   1.3010426069826053E-18   1.3010426069826053E-18   1.3010426069826053E-18   1.3010426069826053E-18   1.3010426069826053E-18   1.3010426069826053E-18   1.3010426069826053E-18   1.3010426069826053E-18   1.3010426069826053E-18   1.3010426069826053E-18   1.3010426069826053E-18   1.3010426069826053E-18   1.3010426069826053E-18   1.3010426069826053E-18   1.3010426069826053E-18   1.3010426069826053E-18   1.3010426069826053E-18   1.3010426069826053E-18   1.3010426069826053E-18   1.3010426069826053E-18   1.3010426069826053E-18   1.3010426069826053E-18   1.3010426069826053E-18   1.3010426069826053E-18   1.3010426069826053E-18   1.3010426069826053E-18   1.3010426069826053E-18   1.3010426069826053E-18   1.3010426069826053E-18   1.3010426069826053E-18   1.3010426069826053E-18   1.3010426069826053E-18   1.3010426069826053E-18   1.3010426069826053E-18   1.3010426069826053E-18   1.3010426069826053E-18   1.3010426069826053E-18   1.3010426069826053E-18   1.3010426069826053E-18   1.3010426069826053E-18   1.3010426069826053E-18   1.3010426069826053E-18   1.3010426069826053E-18   1.3010426069826053E-18   1.3010426069826053E-18   1.3010426069826053E-18   1.3010426069826053E-18   1.3010426069826053E-18   1.3010426069826053E-18   1.3010426069826053E-18   1.3010426069826053E-18   1.3010426069826053E-18   1.3010426069826053E-18   1.3010426069826053E-18   1.3010426069826053E-18   1.3010426069826053E-18   1.3010426069826053E-18   1.3010426069826053E-18   1.3010426069826053E-18   1.3010426069826053E-18   1.3010426069826053E-18   1.3010426069826053E-18   1.3010426069826053E-18   1.3010426069826053E-18   1.3010426069826053E-18   1.3010426069826053E-18   1.3010426069826053E-18   1.3010426069826053E-18   1.3010426069826053E-18   1.3010426069826053E-18   1.3010426069826053E-18   1.3010426069826053E-18   1.3010426069826053E-18   1.3010426069826053E-18   1.3010426069826053E-18   1.3010426069826053E-18   1.3010426069826053E-18   1.3010426069826053E-18   1.3010426069826053E-18   1.3010426069826053E-18   1.3010426069826053E-18   1.3010426069826053E-18   1.3010426069826053E-18   1.3010426069826053E-18   1.3010426069826053E-18   1.3010426069826053E-18   1.3010426069826053E-18   1.3010426069826053E-18   1.3010426069826053E-18   1.3010426069826053E-18   1.3010426069826053E-18   1.3010426069826053E-18   1.3010426069826053E-18   1.3010426069826053E-18   1.3010426069826053E-18   1.3010426069826053E-18   1.3010426069826053E-18   1.3010426069826053E-18   1.3010426069826053E-18   1.3010426069826053E-18   1.3010426069826053E-18   1.3010426069826053E-18   1.3010426069826053E-18   1.3010426069826053E-18   1.3010426069826053E-18   1.3010426069826053E-18   1.3010426069826053E-18   1.3010426069826053E-18   1.3010426069826053E-18   1.3010426069826053E-18   1.3010426069826053E-18   1.3010426069826053E-18   1.3010426069826053E-18   1.3010426069826053E-18   1.3010426069826053E-18   1.3010426069826053E-18   1.3010426069826053E-18   1.3010426069826053E-18   1.3010426069826053E-18   1.3010426069826053E-18   1.3010426069826053E-18   1.3010426069826053E-18   1.3010426069826053E-18   1.3010426069826053E-18   1.3010426069826053E-18   1.3010426069826053E-18   1.3010426069826053E-18   1.3010426069826053E-18   1.3010426069826053E-18   1.3010426069826053E-18   1.3010426069826053E-18   1.3010426069826053E-18   1.3010426069826053E-18   1.3010426069826053E-18   1.3010426069826053E-18   1.3010426069826053E-18   1.3010426069826053E-18   1.3010426069826053E-18   1.3010426069826053E-18   1.3010426069826053E-18   1.3010426069826053E-18   1.3010426069826053E-18   1.3010426069826053E-18   1.3010426069826053E-18   1.3010426069826053E-18   1.3010426069826053E-18   1.3010426069826053E-18   1.3010426069826053E-18   1.3010426069826053E-18   1.3010426069826053E-18   1.3010426069826053E-18   1.3010426069826053E-18   1.3010426069826053E-18   1.3010426069826053E-18   1.3010426069826053E-18   1.3010426069826053E-18   1.3010426069826053E-18   1.3010426069826053E-18   1.3010426069826053E-18   1.3010426069826053E-18   1.3010426069826053E-18   1.3010426069826053E-18   1.3010426069826053E-18   1.3010426069826053E-18   1.3010426069826053E-18   1.3010426069826053E-18   1.3010426069826053E-18   1.3010426069826053E-18   1.3010426069826053E-18   1.3010426069826053E-18   1.3010426069826053E-18   1.3010426069826053E-18   1.3010426069826053E-18   1.3010426069826053E-18   1.3010426069826053E-18   1.3010426069826053E-18   1.3010426069826053E-18   1.3010426069826053E-18   1.3010426069826053E-18   1.3010426069826053E-18   1.3010426069826053E-18   1.3010426069826053E-18   1.3010426069826053E-18   1.3010426069826053E-18   1.3010426069826053E-18   1.3010426069826053E-18   1.3010426069826053E-18   1.3010426069826053E-18   1.3010426069826053E-18   1.3010426069826053E-18   1.3010426069826053E-18   1.3010426069826053E-18   1.3010426069826053E-18   1.3010426069826053E-18   1.3010426069826053E-18   1.3010426069826053E-18   1.3010426069826053E-18   1.3010426069826053E-18   1.3010426069826053E-18   1.3010426069826053E-18   1.3010426069826053E-18   1.3010426069826053E-18   1.3010426069826053E-18   1.3010426069826053E-18   1.3010426069826053E-18   1.3010426069826053E-18   1.3010426069826053E-18   1.3010426069826053E-18   1.3010426069826053E-18   1.3010426069826053E-18   1.3010426069826053E-18   1.3010426069826053E-18   1.3010426069826053E-18   1.3010426069826053E-18   1.3010426069826053E-18   1.3010426069826053E-18   1.3010426069826053E-18   1.3010426069826053E-18   1.3010426069826053E-18   1.3010426069826053E-18   1.3010426069826053E-18   1.3010426069826053E-18   1.3010426069826053E-18   1.3010426069826053E-18   1.3010426069826053E-18   1.3010426069826053E-18   1.3010426069826053E-18   1.3010426069826053E-18   1.3010426069826053E-18   1.3010426069826053E-18   1.3010426069826053E-18   1.3010426069826053E-18   1.3010426069826053E-18   1.3010426069826053E-18   1.3010426069826053E-18   1.3010426069826053E-18   1.3010426069826053E-18   1.3010426069826053E-18   1.3010426069826053E-18   1.3010426069826053E-18   1.3010426069826053E-18   1.3010426069826053E-18   1.3010426069826053E-18   1.3010426069826053E-18   1.3010426069826053E-18   1.3010426069826053E-18   1.3010426069826053E-18   1.3010426069826053E-18   1.3010426069826053E-18   1.3010426069826053E-18   1.3010426069826053E-18   1.3010426069826053E-18   1.3010426069826053E-18   1.3010426069826053E-18   1.3010426069826053E-18   1.3010426069826053E-18   1.3010426069826053E-18   1.3010426069826053E-18   1.3010426069826053E-18   1.3010426069826053E-18   1.3010426069826053E-18   1.3010426069826053E-18   1.3010426069826053E-18   1.3010426069826053E-18   1.3010426069826053E-18   1.3010426069826053E-18   1.3010426069826053E-18   1.3010426069826053E-18   1.3010426069826053E-18   1.3010426069826053E-18   1.3010426069826053E-18   1.3010426069826053E-18   1.3010426069826053E-18   1.3010426069826053E-18   1.3010426069826053E-18   1.3010426069826053E-18   1.3010426069826053E-18   1.3010426069826053E-18   1.3010426069826053E-18   1.3010426069826053E-18   1.3010426069826053E-18   1.3010426069826053E-18   1.3010426069826053E-18   1.3010426069826053E-18   1.3010426069826053E-18   1.3010426069826053E-18   1.3010426069826053E-18   1.3010426069826053E-18   1.3010426069826053E-18   1.3010426069826053E-18   1.3010426069826053E-18   1.3010426069826053E-18   1.3010426069826053E-18   1.3010426069826053E-18   1.3010426069826053E-18   1.3010426069826053E-18   1.3010426069826053E-18   1.3010426069826053E-18   1.3010426069826053E-18   1.3010426069826053E-18   1.3010426069826053E-18   1.3010426069826053E-18   1.3010426069826053E-18   1.3010426069826053E-18   1.3010426069826053E-18   1.3010426069826053E-18   1.3010426069826053E-18   1.3010426069826053E-18   1.3010426069826053E-18   1.3010426069826053E-18   1.3010426069826053E-18   1.3010426069826053E-18   1.3010426069826053E-18   1.3010426069826053E-18
% y