% Model:              new_trap_efield_far.mph
% Version:            COMSOL 5.0.0.243
% Date:               Dec 2 2019, 13:40
% Dimension:          3
% Nodes:              1001
% Expressions:        1
% Description:        Electric field, y component
% Length unit:        m
% x                       y                        z                        es.Ey (V/m)
-8.673617379884035E-19    -0.01298701298701306     -1.0408340855860843E-16  -0.13016775656253304
-8.673617379884035E-19    -0.012961038961039034    -1.0408340855860843E-16  -0.13031996567471243
-8.673617379884035E-19    -0.01293506493506501     -1.0408340855860843E-16  -0.1304721747868957
-8.673617379884035E-19    -0.012909090909090981    -1.0408340855860843E-16  -0.13062438389907557
-8.673617379884035E-19    -0.012883116883116955    -1.0408340855860843E-16  -0.13077659301125652
-8.673617379884035E-19    -0.012857142857142932    -1.0408340855860843E-16  -0.13095781042937335
-8.673617379884035E-19    -0.012831168831168905    -1.0408340855860843E-16  -0.1310800938417249
-8.673617379884035E-19    -0.012805194805194878    -1.0408340855860843E-16  -0.13110526291611088
-8.673617379884035E-19    -0.012779220779220852    -1.0408340855860843E-16  -0.13122118430153326
-8.673617379884035E-19    -0.012753246753246825    -1.0408340855860843E-16  -0.13133710568695553
-8.673617379884035E-19    -0.012727272727272799    -1.0408340855860843E-16  -0.13145302707237794
-8.673617379884035E-19    -0.012701298701298772    -1.0408340855860843E-16  -0.1315689484578002
-8.673617379884035E-19    -0.012675324675324747    -1.0408340855860843E-16  -0.13168486984322256
-8.673617379884035E-19    -0.012649350649350721    -1.0408340855860843E-16  -0.13180079122864485
-8.673617379884035E-19    -0.012623376623376696    -1.0408340855860843E-16  -0.13195010589011824
-8.673617379884035E-19    -0.01259740259740267     -1.0408340855860843E-16  -0.13235025599264058
-8.673617379884035E-19    -0.012571428571428643    -1.0408340855860843E-16  -0.1327504060951631
-8.673617379884035E-19    -0.012545454545454617    -1.0408340855860843E-16  -0.13315055619768557
-8.673617379884035E-19    -0.01251948051948059     -1.0408340855860843E-16  -0.13355070630020782
-8.673617379884035E-19    -0.012493506493506565    -1.0408340855860843E-16  -0.13395085640273016
-8.673617379884035E-19    -0.012467532467532537    -1.0408340855860843E-16  -0.134293906922109
-8.673617379884035E-19    -0.012441558441558512    -1.0408340855860843E-16  -0.1346464973110106
-8.673617379884035E-19    -0.012415584415584487    -1.0408340855860843E-16  -0.13499908769991228
-8.673617379884035E-19    -0.01238961038961046     -1.0408340855860843E-16  -0.13535167808881385
-8.673617379884035E-19    -0.012363636363636434    -1.0408340855860843E-16  -0.1357042684777154
-8.673617379884035E-19    -0.012337662337662408    -1.0408340855860843E-16  -0.13605685886661695
-8.673617379884035E-19    -0.012311688311688381    -1.0408340855860843E-16  -0.13637669759940912
-8.673617379884035E-19    -0.012285714285714355    -1.0408340855860843E-16  -0.1371182509948441
-8.673617379884035E-19    -0.01225974025974033     -1.0408340855860843E-16  -0.1376994778991466
-8.673617379884035E-19    -0.012233766233766302    -1.0408340855860843E-16  -0.13828070480344912
-8.673617379884035E-19    -0.012207792207792275    -1.0408340855860843E-16  -0.13886193170775135
-8.673617379884035E-19    -0.012181818181818252    -1.0408340855860843E-16  -0.13944315861205384
-8.673617379884035E-19    -0.012155844155844225    -1.0408340855860843E-16  -0.1400243855163561
-8.673617379884035E-19    -0.012129870129870199    -1.0408340855860843E-16  -0.14048662217703234
-8.673617379884035E-19    -0.012103896103896172    -1.0408340855860843E-16  -0.14111659081403125
-8.673617379884035E-19    -0.012077922077922148    -1.0408340855860843E-16  -0.1417465594510302
-8.673617379884035E-19    -0.01205194805194812     -1.0408340855860843E-16  -0.1423765280880293
-8.673617379884035E-19    -0.012025974025974093    -1.0408340855860843E-16  -0.14300649672502833
-8.673617379884035E-19    -0.012000000000000068    -1.0408340855860843E-16  -0.14363646536202704
-8.673617379884035E-19    -0.01197402597402604     -1.0408340855860843E-16  -0.1442664339990262
-8.673617379884035E-19    -0.011948051948052017    -1.0408340855860843E-16  -0.1448964026360251
-8.673617379884035E-19    -0.01192207792207799     -1.0408340855860843E-16  -0.145641665328193
-8.673617379884035E-19    -0.011896103896103963    -1.0408340855860843E-16  -0.14658101808943683
-8.673617379884035E-19    -0.011870129870129937    -1.0408340855860843E-16  -0.14752037085068065
-8.673617379884035E-19    -0.01184415584415591     -1.0408340855860843E-16  -0.14845972361192447
-8.673617379884035E-19    -0.011818181818181886    -1.0408340855860843E-16  -0.14939907637316835
-8.673617379884035E-19    -0.011792207792207857    -1.0408340855860843E-16  -0.15027312811198612
-8.673617379884035E-19    -0.011766233766233833    -1.0408340855860843E-16  -0.15120031673842618
-8.673617379884035E-19    -0.011740259740259806    -1.0408340855860843E-16  -0.15212750536486622
-8.673617379884035E-19    -0.011714285714285781    -1.0408340855860843E-16  -0.15305469399130645
-8.673617379884035E-19    -0.011688311688311755    -1.0408340855860843E-16  -0.1539818826177465
-8.673617379884035E-19    -0.011662337662337728    -1.0408340855860843E-16  -0.15490907124418654
-8.673617379884035E-19    -0.011636363636363702    -1.0408340855860843E-16  -0.15583625987062624
-8.673617379884035E-19    -0.011610389610389675    -1.0408340855860843E-16  -0.15676344849706653
-8.673617379884035E-19    -0.01158441558441565     -1.0408340855860843E-16  -0.15769063712350634
-8.673617379884035E-19    -0.011558441558441624    -1.0408340855860843E-16  -0.15897513007848196
-8.673617379884035E-19    -0.011532467532467597    -1.0408340855860843E-16  -0.15996873686041008
-8.673617379884035E-19    -0.01150649350649357     -1.0408340855860843E-16  -0.16089318981471745
-8.673617379884035E-19    -0.011480519480519546    -1.0408340855860843E-16  -0.16221342203095923
-8.673617379884035E-19    -0.01145454545454552     -1.0408340855860843E-16  -0.1635336542472014
-8.673617379884035E-19    -0.011428571428571493    -1.0408340855860843E-16  -0.16485388646344357
-8.673617379884035E-19    -0.011402597402597468    -1.0408340855860843E-16  -0.16617411867968565
-8.673617379884035E-19    -0.01137662337662344     -1.0408340855860843E-16  -0.16749435089592787
-8.673617379884035E-19    -0.011350649350649413    -1.0408340855860843E-16  -0.16881458311217018
-8.673617379884035E-19    -0.011324675324675388    -1.0408340855860843E-16  -0.17013481532841226
-8.673617379884035E-19    -0.011298701298701362    -1.0408340855860843E-16  -0.1715299558560479
-8.673617379884035E-19    -0.011272727272727335    -1.0408340855860843E-16  -0.17283188628774193
-8.673617379884035E-19    -0.01124675324675331     -1.0408340855860843E-16  -0.17413381671943523
-8.673617379884035E-19    -0.011220779220779286    -1.0408340855860843E-16  -0.17543574715112906
-8.673617379884035E-19    -0.011194805194805257    -1.0408340855860843E-16  -0.1772096383924613
-8.673617379884035E-19    -0.01116883116883123     -1.0408340855860843E-16  -0.1787585126220974
-8.673617379884035E-19    -0.011142857142857206    -1.0408340855860843E-16  -0.17999404379816442
-8.673617379884035E-19    -0.011116883116883178    -1.0408340855860843E-16  -0.18163244952023888
-8.673617379884035E-19    -0.011090909090909153    -1.0408340855860843E-16  -0.18298106497063582
-8.673617379884035E-19    -0.011064935064935126    -1.0408340855860843E-16  -0.18468888894110458
-8.673617379884035E-19    -0.011038961038961102    -1.0408340855860843E-16  -0.18639671291157373
-8.673617379884035E-19    -0.011012987012987075    -1.0408340855860843E-16  -0.18810453688204307
-8.673617379884035E-19    -0.010987012987013049    -1.0408340855860843E-16  -0.18981236085251177
-8.673617379884035E-19    -0.010961038961039024    -1.0408340855860843E-16  -0.19152018482298092
-8.673617379884035E-19    -0.010935064935064995    -1.0408340855860843E-16  -0.19322800879345026
-8.673617379884035E-19    -0.01090909090909097     -1.0408340855860843E-16  -0.19544556448584233
-8.673617379884035E-19    -0.010883116883116944    -1.0408340855860843E-16  -0.19728993574665943
-8.673617379884035E-19    -0.010857142857142918    -1.0408340855860843E-16  -0.19913430700747692
-8.673617379884035E-19    -0.010831168831168891    -1.0408340855860843E-16  -0.20113545113944872
-8.673617379884035E-19    -0.010805194805194866    -1.0408340855860843E-16  -0.2029958304646725
-8.673617379884035E-19    -0.010779220779220841    -1.0408340855860843E-16  -0.20485620978989605
-8.673617379884035E-19    -0.010753246753246813    -1.0408340855860843E-16  -0.2065092948721331
-8.673617379884035E-19    -0.010727272727272788    -1.0408340855860843E-16  -0.20881237060556546
-8.673617379884035E-19    -0.010701298701298762    -1.0408340855860843E-16  -0.21111544633899787
-8.673617379884035E-19    -0.010675324675324735    -1.0408340855860843E-16  -0.21341852207243028
-8.673617379884035E-19    -0.010649350649350709    -1.0408340855860843E-16  -0.21550381499303572
-8.673617379884035E-19    -0.010623376623376682    -1.0408340855860843E-16  -0.21787378892051668
-8.673617379884035E-19    -0.010597402597402656    -1.0408340855860843E-16  -0.22024376284799713
-8.673617379884035E-19    -0.010571428571428631    -1.0408340855860843E-16  -0.2226137367754789
-8.673617379884035E-19    -0.010545454545454606    -1.0408340855860843E-16  -0.22498371070295942
-8.673617379884035E-19    -0.010519480519480578    -1.0408340855860843E-16  -0.22735368463044042
-8.673617379884035E-19    -0.010493506493506551    -1.0408340855860843E-16  -0.22972365855792162
-8.673617379884035E-19    -0.010467532467532526    -1.0408340855860843E-16  -0.2320936324854017
-8.673617379884035E-19    -0.010441558441558498    -1.0408340855860843E-16  -0.23446360641288305
-8.673617379884035E-19    -0.010415584415584473    -1.0408340855860843E-16  -0.23683358034036406
-8.673617379884035E-19    -0.010389610389610447    -1.0408340855860843E-16  -0.2392035542678449
-8.673617379884035E-19    -0.010363636363636422    -1.0408340855860843E-16  -0.2427851036147034
-8.673617379884035E-19    -0.010337662337662396    -1.0408340855860843E-16  -0.2453699561493976
-8.673617379884035E-19    -0.010311688311688369    -1.0408340855860843E-16  -0.2476766047073342
-8.673617379884035E-19    -0.010285714285714344    -1.0408340855860843E-16  -0.25077385582106926
-8.673617379884035E-19    -0.010259740259740316    -1.0408340855860843E-16  -0.2538711069348035
-8.673617379884035E-19    -0.010233766233766291    -1.0408340855860843E-16  -0.2571137615908098
-8.673617379884035E-19    -0.010207792207792265    -1.0408340855860843E-16  -0.2601243698363691
-8.673617379884035E-19    -0.010181818181818238    -1.0408340855860843E-16  -0.2631349780819287
-8.673617379884035E-19    -0.010155844155844211    -1.0408340855860843E-16  -0.2658274856150593
-8.673617379884035E-19    -0.010129870129870185    -1.0408340855860843E-16  -0.26918380072364445
-8.673617379884035E-19    -0.01010389610389616     -1.0408340855860843E-16  -0.27254011583222953
-8.673617379884035E-19    -0.010077922077922134    -1.0408340855860843E-16  -0.2758964309408147
-8.673617379884035E-19    -0.010051948051948109    -1.0408340855860843E-16  -0.27925274604939904
-8.673617379884035E-19    -0.010025974025974082    -1.0408340855860843E-16  -0.282609061157984
-8.673617379884035E-19    -0.010000000000000056    -1.0408340855860843E-16  -0.28596537626656915
-8.673617379884035E-19    -0.00997402597402603     -1.0408340855860843E-16  -0.28932169137515484
-8.673617379884035E-19    -0.009948051948052003    -1.0408340855860843E-16  -0.29267800648373976
-8.673617379884035E-19    -0.009922077922077976    -1.0408340855860843E-16  -0.29659644477328073
-8.673617379884035E-19    -0.00989610389610395     -1.0408340855860843E-16  -0.3000300120106535
-8.673617379884035E-19    -0.009870129870129925    -1.0408340855860843E-16  -0.30513836995221943
-8.673617379884035E-19    -0.009844155844155898    -1.0408340855860843E-16  -0.3090546638267211
-8.673617379884035E-19    -0.009818181818181873    -1.0408340855860843E-16  -0.31266524346523195
-8.673617379884035E-19    -0.009792207792207847    -1.0408340855860843E-16  -0.31652294595441777
-8.673617379884035E-19    -0.00976623376623382     -1.0408340855860843E-16  -0.3203806484436011
-8.673617379884035E-19    -0.009740259740259794    -1.0408340855860843E-16  -0.3231323770484296
-8.673617379884035E-19    -0.009714285714285767    -1.0408340855860843E-16  -0.32791614617134973
-8.673617379884035E-19    -0.009688311688311742    -1.0408340855860843E-16  -0.3326999152942709
-8.673617379884035E-19    -0.009662337662337714    -1.0408340855860843E-16  -0.3374836844171918
-8.673617379884035E-19    -0.00963636363636369     -1.0408340855860843E-16  -0.34226745354011223
-8.673617379884035E-19    -0.009610389610389665    -1.0408340855860843E-16  -0.3473704108577329
-8.673617379884035E-19    -0.009584415584415638    -1.0408340855860843E-16  -0.3519964391914261
-8.673617379884035E-19    -0.009558441558441612    -1.0408340855860843E-16  -0.35662246752512083
-8.673617379884035E-19    -0.009532467532467585    -1.0408340855860843E-16  -0.3612484958588138
-8.673617379884035E-19    -0.00950649350649356     -1.0408340855860843E-16  -0.3658745241925079
-8.673617379884035E-19    -0.009480519480519532    -1.0408340855860843E-16  -0.37050055252620195
-8.673617379884035E-19    -0.009454545454545505    -1.0408340855860843E-16  -0.3772060554842822
-8.673617379884035E-19    -0.00942857142857148     -1.0408340855860843E-16  -0.3810013998467323
-8.673617379884035E-19    -0.009402597402597454    -1.0408340855860843E-16  -0.3868194807789306
-8.673617379884035E-19    -0.00937662337662343     -1.0408340855860843E-16  -0.3926375617111256
-8.673617379884035E-19    -0.009350649350649403    -1.0408340855860843E-16  -0.39788654600733153
-8.673617379884035E-19    -0.009324675324675376    -1.0408340855860843E-16  -0.4034098420431571
-8.673617379884035E-19    -0.00929870129870135     -1.0408340855860843E-16  -0.40893313807898257
-8.673617379884035E-19    -0.009272727272727323    -1.0408340855860843E-16  -0.41445643411481026
-8.673617379884035E-19    -0.009246753246753297    -1.0408340855860843E-16  -0.4199797301506363
-8.673617379884035E-19    -0.00922077922077927     -1.0408340855860843E-16  -0.42550302618646274
-8.673617379884035E-19    -0.009194805194805245    -1.0408340855860843E-16  -0.43163887584868066
-8.673617379884035E-19    -0.009168831168831219    -1.0408340855860843E-16  -0.4385339973695319
-8.673617379884035E-19    -0.009142857142857194    -1.0408340855860843E-16  -0.4454291188903823
-8.673617379884035E-19    -0.009116883116883167    -1.0408340855860843E-16  -0.4523242404112341
-8.673617379884035E-19    -0.00909090909090914     -1.0408340855860843E-16  -0.4592193619320847
-8.673617379884035E-19    -0.009064935064935114    -1.0408340855860843E-16  -0.46513632998717636
-8.673617379884035E-19    -0.009038961038961088    -1.0408340855860843E-16  -0.4724202084190515
-8.673617379884035E-19    -0.009012987012987063    -1.0408340855860843E-16  -0.47970408685092786
-8.673617379884035E-19    -0.008987012987013036    -1.0408340855860843E-16  -0.486987965282804
-8.673617379884035E-19    -0.00896103896103901     -1.0408340855860843E-16  -0.4942718437146809
-8.673617379884035E-19    -0.008935064935064983    -1.0408340855860843E-16  -0.5015557221465564
-8.673617379884035E-19    -0.008909090909090957    -1.0408340855860843E-16  -0.5088396005784352
-8.673617379884035E-19    -0.008883116883116932    -1.0408340855860843E-16  -0.5161234790103081
-8.673617379884035E-19    -0.008857142857142905    -1.0408340855860843E-16  -0.5232531870636279
-8.673617379884035E-19    -0.00883116883116888     -1.0408340855860843E-16  -0.5303399257875754
-8.673617379884035E-19    -0.008805194805194852    -1.0408340855860843E-16  -0.5418814217442431
-8.673617379884035E-19    -0.008779220779220826    -1.0408340855860843E-16  -0.5489943746740478
-8.673617379884035E-19    -0.008753246753246801    -1.0408340855860843E-16  -0.5576171080977298
-8.673617379884035E-19    -0.008727272727272774    -1.0408340855860843E-16  -0.5662398415214135
-8.673617379884035E-19    -0.008701298701298748    -1.0408340855860843E-16  -0.5748625749450956
-8.673617379884035E-19    -0.008675324675324721    -1.0408340855860843E-16  -0.5834853083687799
-8.673617379884035E-19    -0.008649350649350697    -1.0408340855860843E-16  -0.5921080417924625
-8.673617379884035E-19    -0.00862337662337667     -1.0408340855860843E-16  -0.6028985040362329
-8.673617379884035E-19    -0.008597402597402643    -1.0408340855860843E-16  -0.6125432365556474
-8.673617379884035E-19    -0.008571428571428617    -1.0408340855860843E-16  -0.6221879690750598
-8.673617379884035E-19    -0.00854545454545459     -1.0408340855860843E-16  -0.6318327015944732
-8.673617379884035E-19    -0.008519480519480566    -1.0408340855860843E-16  -0.6414774341138867
-8.673617379884035E-19    -0.008493506493506539    -1.0408340855860843E-16  -0.6511221666332987
-8.673617379884035E-19    -0.008467532467532513    -1.0408340855860843E-16  -0.662442227776173
-8.673617379884035E-19    -0.008441558441558486    -1.0408340855860843E-16  -0.6706004173938065
-8.673617379884035E-19    -0.008415584415584461    -1.0408340855860843E-16  -0.6827251038965718
-8.673617379884035E-19    -0.008389610389610436    -1.0408340855860843E-16  -0.6948497903993436
-8.673617379884035E-19    -0.008363636363636408    -1.0408340855860843E-16  -0.7069744769021143
-8.673617379884035E-19    -0.008337662337662383    -1.0408340855860843E-16  -0.7190991634048829
-8.673617379884035E-19    -0.008311688311688357    -1.0408340855860843E-16  -0.7312238499076531
-8.673617379884035E-19    -0.00828571428571433     -1.0408340855860843E-16  -0.7433485364104229
-8.673617379884035E-19    -0.008259740259740304    -1.0408340855860843E-16  -0.7543289344851133
-8.673617379884035E-19    -0.008233766233766277    -1.0408340855860843E-16  -0.7664272078121823
-8.673617379884035E-19    -0.00820779220779225     -1.0408340855860843E-16  -0.7785254811392502
-8.673617379884035E-19    -0.008181818181818226    -1.0408340855860843E-16  -0.7919004906240529
-8.673617379884035E-19    -0.008155844155844201    -1.0408340855860843E-16  -0.8060415616118753
-8.673617379884035E-19    -0.008129870129870173    -1.0408340855860843E-16  -0.8201826325997048
-8.673617379884035E-19    -0.008103896103896148    -1.0408340855860843E-16  -0.8343237035875293
-8.673617379884035E-19    -0.008077922077922121    -1.0408340855860843E-16  -0.8484647745753543
-8.673617379884035E-19    -0.008051948051948093    -1.0408340855860843E-16  -0.8626058455631805
-8.673617379884035E-19    -0.008025974025974068    -1.0408340855860843E-16  -0.8772327636094972
-8.673617379884035E-19    -0.008000000000000042    -1.0408340855860843E-16  -0.8859941727888967
-8.673617379884035E-19    -0.007974025974026015    -1.0408340855860843E-16  -0.9032500018999714
-8.673617379884035E-19    -0.00794805194805199     -1.0408340855860843E-16  -0.9205058310110446
-8.673617379884035E-19    -0.007922077922077964    -1.0408340855860843E-16  -0.9377616601221207
-8.673617379884035E-19    -0.007896103896103939    -1.0408340855860843E-16  -0.9550174892331913
-8.673617379884035E-19    -0.00787012987012991     -1.0408340855860843E-16  -0.9722733183442688
-8.673617379884035E-19    -0.007844155844155886    -1.0408340855860843E-16  -0.9895291474553416
-8.673617379884035E-19    -0.00781818181818186     -1.0408340855860843E-16  -1.0067849765664165
-8.673617379884035E-19    -0.007792207792207836    -1.0408340855860843E-16  -1.0240408056774892
-8.673617379884035E-19    -0.007766233766233807    -1.0408340855860843E-16  -1.041296634788566
-8.673617379884035E-19    -0.007740259740259781    -1.0408340855860843E-16  -1.0585524638996386
-8.673617379884035E-19    -0.007714285714285757    -1.0408340855860843E-16  -1.0758082930107133
-8.673617379884035E-19    -0.0076883116883117286   -1.0408340855860843E-16  -1.100650630786773
-8.673617379884035E-19    -0.007662337662337704    -1.0408340855860843E-16  -1.11772665066162
-8.673617379884035E-19    -0.007636363636363677    -1.0408340855860843E-16  -1.134915895085462
-8.673617379884035E-19    -0.007610389610389651    -1.0408340855860843E-16  -1.157475175650017
-8.673617379884035E-19    -0.007584415584415624    -1.0408340855860843E-16  -1.180529334377264
-8.673617379884035E-19    -0.0075584415584415985   -1.0408340855860843E-16  -1.2023493382030384
-8.673617379884035E-19    -0.007532467532467572    -1.0408340855860843E-16  -1.2241693420288138
-8.673617379884035E-19    -0.007506493506493545    -1.0408340855860843E-16  -1.2459893458545905
-8.673617379884035E-19    -0.0074805194805195215   -1.0408340855860843E-16  -1.2678093496803682
-8.673617379884035E-19    -0.007454545454545493    -1.0408340855860843E-16  -1.289629353506144
-8.673617379884035E-19    -0.007428571428571468    -1.0408340855860843E-16  -1.311449357331918
-8.673617379884035E-19    -0.007402597402597442    -1.0408340855860843E-16  -1.3332693611576953
-8.673617379884035E-19    -0.007376623376623415    -1.0408340855860843E-16  -1.3550893649834705
-8.673617379884035E-19    -0.007350649350649389    -1.0408340855860843E-16  -1.3759567038800955
-8.673617379884035E-19    -0.007324675324675363    -1.0408340855860843E-16  -1.403942414111511
-8.673617379884035E-19    -0.0072987012987013366   -1.0408340855860843E-16  -1.433179360488575
-8.673617379884035E-19    -0.00727272727272731     -1.0408340855860843E-16  -1.4625301612941843
-8.673617379884035E-19    -0.007246753246753286    -1.0408340855860843E-16  -1.4915549682517448
-8.673617379884035E-19    -0.0072207792207792595   -1.0408340855860843E-16  -1.5205797752093084
-8.673617379884035E-19    -0.007194805194805233    -1.0408340855860843E-16  -1.5496045821668725
-8.673617379884035E-19    -0.0071688311688312065   -1.0408340855860843E-16  -1.5786293891244418
-8.673617379884035E-19    -0.00714285714285718     -1.0408340855860843E-16  -1.6076541960820092
-8.673617379884035E-19    -0.007116883116883155    -1.0408340855860843E-16  -1.6366790030395695
-8.673617379884035E-19    -0.007090909090909128    -1.0408340855860843E-16  -1.6657038099971384
-8.673617379884035E-19    -0.007064935064935102    -1.0408340855860843E-16  -1.713867486991953
-8.673617379884035E-19    -0.007038961038961076    -1.0408340855860843E-16  -1.7195330360357608
-8.673617379884035E-19    -0.007012987012987049    -1.0408340855860843E-16  -1.7628361106027484
-8.673617379884035E-19    -0.006987012987013024    -1.0408340855860843E-16  -1.798093831811098
-8.673617379884035E-19    -0.006961038961038998    -1.0408340855860843E-16  -1.833351553019451
-8.673617379884035E-19    -0.006935064935064971    -1.0408340855860843E-16  -1.8686092742278024
-8.673617379884035E-19    -0.0069090909090909446   -1.0408340855860843E-16  -1.9038669954361573
-8.673617379884035E-19    -0.006883116883116918    -1.0408340855860843E-16  -1.9391247166445096
-8.673617379884035E-19    -0.006857142857142892    -1.0408340855860843E-16  -1.9743824378528592
-8.673617379884035E-19    -0.006831168831168867    -1.0408340855860843E-16  -2.0096401590612136
-8.673617379884035E-19    -0.006805194805194841    -1.0408340855860843E-16  -2.0448978802695654
-8.673617379884035E-19    -0.006779220779220814    -1.0408340855860843E-16  -2.080155601477916
-8.673617379884035E-19    -0.006753246753246789    -1.0408340855860843E-16  -2.115413322686277
-8.673617379884035E-19    -0.006727272727272762    -1.0408340855860843E-16  -2.150671043894622
-8.673617379884035E-19    -0.006701298701298736    -1.0408340855860843E-16  -2.2058852771167654
-8.673617379884035E-19    -0.006675324675324709    -1.0408340855860843E-16  -2.2517169579388865
-8.673617379884035E-19    -0.006649350649350683    -1.0408340855860843E-16  -2.29754863876101
-8.673617379884035E-19    -0.006623376623376659    -1.0408340855860843E-16  -2.347249041593159
-8.673617379884035E-19    -0.006597402597402633    -1.0408340855860843E-16  -2.3930065554505617
-8.673617379884035E-19    -0.006571428571428606    -1.0408340855860843E-16  -2.4387640693079646
-8.673617379884035E-19    -0.00654545454545458     -1.0408340855860843E-16  -2.4845215831653693
-8.673617379884035E-19    -0.006519480519480553    -1.0408340855860843E-16  -2.530279097022767
-8.673617379884035E-19    -0.006493506493506527    -1.0408340855860843E-16  -2.5750151494867017
-8.673617379884035E-19    -0.0064675324675325      -1.0408340855860843E-16  -2.62156397816954
-8.673617379884035E-19    -0.0064415584415584756   -1.0408340855860843E-16  -2.6761825366867207
-8.673617379884035E-19    -0.006415584415584448    -1.0408340855860843E-16  -2.7335545528319907
-8.673617379884035E-19    -0.006389610389610423    -1.0408340855860843E-16  -2.787483170644045
-8.673617379884035E-19    -0.006363636363636397    -1.0408340855860843E-16  -2.8420895480166677
-8.673617379884035E-19    -0.006337662337662369    -1.0408340855860843E-16  -2.896695925389277
-8.673617379884035E-19    -0.006311688311688345    -1.0408340855860843E-16  -2.9513023027618974
-8.673617379884035E-19    -0.006285714285714318    -1.0408340855860843E-16  -3.0059086801345125
-8.673617379884035E-19    -0.0062597402597402915   -1.0408340855860843E-16  -3.0605150575071223
-8.673617379884035E-19    -0.006233766233766265    -1.0408340855860843E-16  -3.1151214348797396
-8.673617379884035E-19    -0.006207792207792239    -1.0408340855860843E-16  -3.178524304452333
-8.673617379884035E-19    -0.006181818181818212    -1.0408340855860843E-16  -3.247335592880561
-8.673617379884035E-19    -0.006155844155844185    -1.0408340855860843E-16  -3.316146881308793
-8.673617379884035E-19    -0.006129870129870162    -1.0408340855860843E-16  -3.3849581697370072
-8.673617379884035E-19    -0.006103896103896133    -1.0408340855860843E-16  -3.4534218987136454
-8.673617379884035E-19    -0.006077922077922111    -1.0408340855860843E-16  -3.5209930942641527
-8.673617379884035E-19    -0.006051948051948083    -1.0408340855860843E-16  -3.5885642898146717
-8.673617379884035E-19    -0.006025974025974056    -1.0408340855860843E-16  -3.6626402272588656
-8.673617379884035E-19    -0.006000000000000031    -1.0408340855860843E-16  -3.7313229454200476
-8.673617379884035E-19    -0.005974025974026003    -1.0408340855860843E-16  -3.8000056635812376
-8.673617379884035E-19    -0.005948051948051979    -1.0408340855860843E-16  -3.868688381742448
-8.673617379884035E-19    -0.005922077922077953    -1.0408340855860843E-16  -3.94097215300652
-8.673617379884035E-19    -0.005896103896103926    -1.0408340855860843E-16  -4.019583513125514
-8.673617379884035E-19    -0.0058701298701299      -1.0408340855860843E-16  -4.098194873244515
-8.673617379884035E-19    -0.005844155844155874    -1.0408340855860843E-16  -4.176806233363525
-8.673617379884035E-19    -0.005818181818181847    -1.0408340855860843E-16  -4.255417593482509
-8.673617379884035E-19    -0.005792207792207821    -1.0408340855860843E-16  -4.334028953601525
-8.673617379884035E-19    -0.005766233766233796    -1.0408340855860843E-16  -4.434618178029168
-8.673617379884035E-19    -0.005740259740259769    -1.0408340855860843E-16  -4.5208215082802985
-8.673617379884035E-19    -0.005714285714285743    -1.0408340855860843E-16  -4.595379841878975
-8.673617379884035E-19    -0.005688311688311716    -1.0408340855860843E-16  -4.689729991445642
-8.673617379884035E-19    -0.0056623376623376916   -1.0408340855860843E-16  -4.784080141012307
-8.673617379884035E-19    -0.005636363636363664    -1.0408340855860843E-16  -4.878430290578971
-8.673617379884035E-19    -0.0056103896103896385   -1.0408340855860843E-16  -4.972780440145643
-8.673617379884035E-19    -0.005584415584415612    -1.0408340855860843E-16  -5.067130589712312
-8.673617379884035E-19    -0.005558441558441585    -1.0408340855860843E-16  -5.161810788099005
-8.673617379884035E-19    -0.005532467532467561    -1.0408340855860843E-16  -5.255919139544056
-8.673617379884035E-19    -0.005506493506493532    -1.0408340855860843E-16  -5.350027490989122
-8.673617379884035E-19    -0.005480519480519508    -1.0408340855860843E-16  -5.4441358424341715
-8.673617379884035E-19    -0.005454545454545482    -1.0408340855860843E-16  -5.57843690828911
-8.673617379884035E-19    -0.005428571428571454    -1.0408340855860843E-16  -5.684983277154172
-8.673617379884035E-19    -0.005402597402597431    -1.0408340855860843E-16  -5.791529646019196
-8.673617379884035E-19    -0.005376623376623403    -1.0408340855860843E-16  -5.878968447581633
-8.673617379884035E-19    -0.005350649350649377    -1.0408340855860843E-16  -5.991234109929384
-8.673617379884035E-19    -0.005324675324675352    -1.0408340855860843E-16  -6.097982708955634
-8.673617379884035E-19    -0.0052987012987013235   -1.0408340855860843E-16  -6.218882690062607
-8.673617379884035E-19    -0.0052727272727273      -1.0408340855860843E-16  -6.339782671169555
-8.673617379884035E-19    -0.005246753246753272    -1.0408340855860843E-16  -6.460682652276528
-8.673617379884035E-19    -0.005220779220779246    -1.0408340855860843E-16  -6.581582633383494
-8.673617379884035E-19    -0.005194805194805221    -1.0408340855860843E-16  -6.702482614490446
-8.673617379884035E-19    -0.005168831168831193    -1.0408340855860843E-16  -6.823382595597412
-8.673617379884035E-19    -0.005142857142857168    -1.0408340855860843E-16  -6.942762219767047
-8.673617379884035E-19    -0.005116883116883141    -1.0408340855860843E-16  -7.058117058541991
-8.673617379884035E-19    -0.005090909090909116    -1.0408340855860843E-16  -7.173471897316917
-8.673617379884035E-19    -0.005064935064935089    -1.0408340855860843E-16  -7.288826736091853
-8.673617379884035E-19    -0.005038961038961063    -1.0408340855860843E-16  -7.421246404889999
-8.673617379884035E-19    -0.005012987012987038    -1.0408340855860843E-16  -7.5677182845052435